 TITLE = "testsignal"
VARIABLES = "t [s]" "PH_0_x-1_y-2_z0"
ZONE T="testsignal", F=BLOCK, I=1000, DT=(SINGLE)
0
1.000000e-02
2.000000e-02
3.000000e-02
4.000000e-02
5.000000e-02
6.000000e-02
7.000000e-02
8.000000e-02
9.000000e-02
1.000000e-01
1.100000e-01
1.200000e-01
1.300000e-01
1.400000e-01
1.500000e-01
1.600000e-01
1.700000e-01
1.800000e-01
1.900000e-01
2.000000e-01
2.100000e-01
2.200000e-01
2.300000e-01
2.400000e-01
2.500000e-01
2.600000e-01
2.700000e-01
2.800000e-01
2.900000e-01
3.000000e-01
3.100000e-01
3.200000e-01
3.300000e-01
3.400000e-01
3.500000e-01
3.600000e-01
3.700000e-01
3.800000e-01
3.900000e-01
4.000000e-01
4.100000e-01
4.200000e-01
4.300000e-01
4.400000e-01
4.500000e-01
4.600000e-01
4.700000e-01
4.800000e-01
4.900000e-01
5.000000e-01
5.100000e-01
5.200000e-01
5.300000e-01
5.400000e-01
5.500000e-01
5.600000e-01
5.700000e-01
5.800000e-01
5.900000e-01
6.000000e-01
6.100000e-01
6.200000e-01
6.300000e-01
6.400000e-01
6.500000e-01
6.600000e-01
6.700000e-01
6.800000e-01
6.900000e-01
7.000000e-01
7.100000e-01
7.200000e-01
7.300000e-01
7.400000e-01
7.500000e-01
7.600000e-01
7.700000e-01
7.800000e-01
7.900000e-01
8.000000e-01
8.100000e-01
8.200000e-01
8.300000e-01
8.400000e-01
8.500000e-01
8.600000e-01
8.700000e-01
8.800000e-01
8.900000e-01
9.000000e-01
9.100000e-01
9.200000e-01
9.300000e-01
9.400000e-01
9.500000e-01
9.600000e-01
9.700000e-01
9.800000e-01
9.900000e-01
1
1.010000e+00
1.020000e+00
1.030000e+00
1.040000e+00
1.050000e+00
1.060000e+00
1.070000e+00
1.080000e+00
1.090000e+00
1.100000e+00
1.110000e+00
1.120000e+00
1.130000e+00
1.140000e+00
1.150000e+00
1.160000e+00
1.170000e+00
1.180000e+00
1.190000e+00
1.200000e+00
1.210000e+00
1.220000e+00
1.230000e+00
1.240000e+00
1.250000e+00
1.260000e+00
1.270000e+00
1.280000e+00
1.290000e+00
1.300000e+00
1.310000e+00
1.320000e+00
1.330000e+00
1.340000e+00
1.350000e+00
1.360000e+00
1.370000e+00
1.380000e+00
1.390000e+00
1.400000e+00
1.410000e+00
1.420000e+00
1.430000e+00
1.440000e+00
1.450000e+00
1.460000e+00
1.470000e+00
1.480000e+00
1.490000e+00
1.500000e+00
1.510000e+00
1.520000e+00
1.530000e+00
1.540000e+00
1.550000e+00
1.560000e+00
1.570000e+00
1.580000e+00
1.590000e+00
1.600000e+00
1.610000e+00
1.620000e+00
1.630000e+00
1.640000e+00
1.650000e+00
1.660000e+00
1.670000e+00
1.680000e+00
1.690000e+00
1.700000e+00
1.710000e+00
1.720000e+00
1.730000e+00
1.740000e+00
1.750000e+00
1.760000e+00
1.770000e+00
1.780000e+00
1.790000e+00
1.800000e+00
1.810000e+00
1.820000e+00
1.830000e+00
1.840000e+00
1.850000e+00
1.860000e+00
1.870000e+00
1.880000e+00
1.890000e+00
1.900000e+00
1.910000e+00
1.920000e+00
1.930000e+00
1.940000e+00
1.950000e+00
1.960000e+00
1.970000e+00
1.980000e+00
1.990000e+00
2
2.010000e+00
2.020000e+00
2.030000e+00
2.040000e+00
2.050000e+00
2.060000e+00
2.070000e+00
2.080000e+00
2.090000e+00
2.100000e+00
2.110000e+00
2.120000e+00
2.130000e+00
2.140000e+00
2.150000e+00
2.160000e+00
2.170000e+00
2.180000e+00
2.190000e+00
2.200000e+00
2.210000e+00
2.220000e+00
2.230000e+00
2.240000e+00
2.250000e+00
2.260000e+00
2.270000e+00
2.280000e+00
2.290000e+00
2.300000e+00
2.310000e+00
2.320000e+00
2.330000e+00
2.340000e+00
2.350000e+00
2.360000e+00
2.370000e+00
2.380000e+00
2.390000e+00
2.400000e+00
2.410000e+00
2.420000e+00
2.430000e+00
2.440000e+00
2.450000e+00
2.460000e+00
2.470000e+00
2.480000e+00
2.490000e+00
2.500000e+00
2.510000e+00
2.520000e+00
2.530000e+00
2.540000e+00
2.550000e+00
2.560000e+00
2.570000e+00
2.580000e+00
2.590000e+00
2.600000e+00
2.610000e+00
2.620000e+00
2.630000e+00
2.640000e+00
2.650000e+00
2.660000e+00
2.670000e+00
2.680000e+00
2.690000e+00
2.700000e+00
2.710000e+00
2.720000e+00
2.730000e+00
2.740000e+00
2.750000e+00
2.760000e+00
2.770000e+00
2.780000e+00
2.790000e+00
2.800000e+00
2.810000e+00
2.820000e+00
2.830000e+00
2.840000e+00
2.850000e+00
2.860000e+00
2.870000e+00
2.880000e+00
2.890000e+00
2.900000e+00
2.910000e+00
2.920000e+00
2.930000e+00
2.940000e+00
2.950000e+00
2.960000e+00
2.970000e+00
2.980000e+00
2.990000e+00
3
3.010000e+00
3.020000e+00
3.030000e+00
3.040000e+00
3.050000e+00
3.060000e+00
3.070000e+00
3.080000e+00
3.090000e+00
3.100000e+00
3.110000e+00
3.120000e+00
3.130000e+00
3.140000e+00
3.150000e+00
3.160000e+00
3.170000e+00
3.180000e+00
3.190000e+00
3.200000e+00
3.210000e+00
3.220000e+00
3.230000e+00
3.240000e+00
3.250000e+00
3.260000e+00
3.270000e+00
3.280000e+00
3.290000e+00
3.300000e+00
3.310000e+00
3.320000e+00
3.330000e+00
3.340000e+00
3.350000e+00
3.360000e+00
3.370000e+00
3.380000e+00
3.390000e+00
3.400000e+00
3.410000e+00
3.420000e+00
3.430000e+00
3.440000e+00
3.450000e+00
3.460000e+00
3.470000e+00
3.480000e+00
3.490000e+00
3.500000e+00
3.510000e+00
3.520000e+00
3.530000e+00
3.540000e+00
3.550000e+00
3.560000e+00
3.570000e+00
3.580000e+00
3.590000e+00
3.600000e+00
3.610000e+00
3.620000e+00
3.630000e+00
3.640000e+00
3.650000e+00
3.660000e+00
3.670000e+00
3.680000e+00
3.690000e+00
3.700000e+00
3.710000e+00
3.720000e+00
3.730000e+00
3.740000e+00
3.750000e+00
3.760000e+00
3.770000e+00
3.780000e+00
3.790000e+00
3.800000e+00
3.810000e+00
3.820000e+00
3.830000e+00
3.840000e+00
3.850000e+00
3.860000e+00
3.870000e+00
3.880000e+00
3.890000e+00
3.900000e+00
3.910000e+00
3.920000e+00
3.930000e+00
3.940000e+00
3.950000e+00
3.960000e+00
3.970000e+00
3.980000e+00
3.990000e+00
4
4.010000e+00
4.020000e+00
4.030000e+00
4.040000e+00
4.050000e+00
4.060000e+00
4.070000e+00
4.080000e+00
4.090000e+00
4.100000e+00
4.110000e+00
4.120000e+00
4.130000e+00
4.140000e+00
4.150000e+00
4.160000e+00
4.170000e+00
4.180000e+00
4.190000e+00
4.200000e+00
4.210000e+00
4.220000e+00
4.230000e+00
4.240000e+00
4.250000e+00
4.260000e+00
4.270000e+00
4.280000e+00
4.290000e+00
4.300000e+00
4.310000e+00
4.320000e+00
4.330000e+00
4.340000e+00
4.350000e+00
4.360000e+00
4.370000e+00
4.380000e+00
4.390000e+00
4.400000e+00
4.410000e+00
4.420000e+00
4.430000e+00
4.440000e+00
4.450000e+00
4.460000e+00
4.470000e+00
4.480000e+00
4.490000e+00
4.500000e+00
4.510000e+00
4.520000e+00
4.530000e+00
4.540000e+00
4.550000e+00
4.560000e+00
4.570000e+00
4.580000e+00
4.590000e+00
4.600000e+00
4.610000e+00
4.620000e+00
4.630000e+00
4.640000e+00
4.650000e+00
4.660000e+00
4.670000e+00
4.680000e+00
4.690000e+00
4.700000e+00
4.710000e+00
4.720000e+00
4.730000e+00
4.740000e+00
4.750000e+00
4.760000e+00
4.770000e+00
4.780000e+00
4.790000e+00
4.800000e+00
4.810000e+00
4.820000e+00
4.830000e+00
4.840000e+00
4.850000e+00
4.860000e+00
4.870000e+00
4.880000e+00
4.890000e+00
4.900000e+00
4.910000e+00
4.920000e+00
4.930000e+00
4.940000e+00
4.950000e+00
4.960000e+00
4.970000e+00
4.980000e+00
4.990000e+00
5
5.010000e+00
5.020000e+00
5.030000e+00
5.040000e+00
5.050000e+00
5.060000e+00
5.070000e+00
5.080000e+00
5.090000e+00
5.100000e+00
5.110000e+00
5.120000e+00
5.130000e+00
5.140000e+00
5.150000e+00
5.160000e+00
5.170000e+00
5.180000e+00
5.190000e+00
5.200000e+00
5.210000e+00
5.220000e+00
5.230000e+00
5.240000e+00
5.250000e+00
5.260000e+00
5.270000e+00
5.280000e+00
5.290000e+00
5.300000e+00
5.310000e+00
5.320000e+00
5.330000e+00
5.340000e+00
5.350000e+00
5.360000e+00
5.370000e+00
5.380000e+00
5.390000e+00
5.400000e+00
5.410000e+00
5.420000e+00
5.430000e+00
5.440000e+00
5.450000e+00
5.460000e+00
5.470000e+00
5.480000e+00
5.490000e+00
5.500000e+00
5.510000e+00
5.520000e+00
5.530000e+00
5.540000e+00
5.550000e+00
5.560000e+00
5.570000e+00
5.580000e+00
5.590000e+00
5.600000e+00
5.610000e+00
5.620000e+00
5.630000e+00
5.640000e+00
5.650000e+00
5.660000e+00
5.670000e+00
5.680000e+00
5.690000e+00
5.700000e+00
5.710000e+00
5.720000e+00
5.730000e+00
5.740000e+00
5.750000e+00
5.760000e+00
5.770000e+00
5.780000e+00
5.790000e+00
5.800000e+00
5.810000e+00
5.820000e+00
5.830000e+00
5.840000e+00
5.850000e+00
5.860000e+00
5.870000e+00
5.880000e+00
5.890000e+00
5.900000e+00
5.910000e+00
5.920000e+00
5.930000e+00
5.940000e+00
5.950000e+00
5.960000e+00
5.970000e+00
5.980000e+00
5.990000e+00
6
6.010000e+00
6.020000e+00
6.030000e+00
6.040000e+00
6.050000e+00
6.060000e+00
6.070000e+00
6.080000e+00
6.090000e+00
6.100000e+00
6.110000e+00
6.120000e+00
6.130000e+00
6.140000e+00
6.150000e+00
6.160000e+00
6.170000e+00
6.180000e+00
6.190000e+00
6.200000e+00
6.210000e+00
6.220000e+00
6.230000e+00
6.240000e+00
6.250000e+00
6.260000e+00
6.270000e+00
6.280000e+00
6.290000e+00
6.300000e+00
6.310000e+00
6.320000e+00
6.330000e+00
6.340000e+00
6.350000e+00
6.360000e+00
6.370000e+00
6.380000e+00
6.390000e+00
6.400000e+00
6.410000e+00
6.420000e+00
6.430000e+00
6.440000e+00
6.450000e+00
6.460000e+00
6.470000e+00
6.480000e+00
6.490000e+00
6.500000e+00
6.510000e+00
6.520000e+00
6.530000e+00
6.540000e+00
6.550000e+00
6.560000e+00
6.570000e+00
6.580000e+00
6.590000e+00
6.600000e+00
6.610000e+00
6.620000e+00
6.630000e+00
6.640000e+00
6.650000e+00
6.660000e+00
6.670000e+00
6.680000e+00
6.690000e+00
6.700000e+00
6.710000e+00
6.720000e+00
6.730000e+00
6.740000e+00
6.750000e+00
6.760000e+00
6.770000e+00
6.780000e+00
6.790000e+00
6.800000e+00
6.810000e+00
6.820000e+00
6.830000e+00
6.840000e+00
6.850000e+00
6.860000e+00
6.870000e+00
6.880000e+00
6.890000e+00
6.900000e+00
6.910000e+00
6.920000e+00
6.930000e+00
6.940000e+00
6.950000e+00
6.960000e+00
6.970000e+00
6.980000e+00
6.990000e+00
7
7.010000e+00
7.020000e+00
7.030000e+00
7.040000e+00
7.050000e+00
7.060000e+00
7.070000e+00
7.080000e+00
7.090000e+00
7.100000e+00
7.110000e+00
7.120000e+00
7.130000e+00
7.140000e+00
7.150000e+00
7.160000e+00
7.170000e+00
7.180000e+00
7.190000e+00
7.200000e+00
7.210000e+00
7.220000e+00
7.230000e+00
7.240000e+00
7.250000e+00
7.260000e+00
7.270000e+00
7.280000e+00
7.290000e+00
7.300000e+00
7.310000e+00
7.320000e+00
7.330000e+00
7.340000e+00
7.350000e+00
7.360000e+00
7.370000e+00
7.380000e+00
7.390000e+00
7.400000e+00
7.410000e+00
7.420000e+00
7.430000e+00
7.440000e+00
7.450000e+00
7.460000e+00
7.470000e+00
7.480000e+00
7.490000e+00
7.500000e+00
7.510000e+00
7.520000e+00
7.530000e+00
7.540000e+00
7.550000e+00
7.560000e+00
7.570000e+00
7.580000e+00
7.590000e+00
7.600000e+00
7.610000e+00
7.620000e+00
7.630000e+00
7.640000e+00
7.650000e+00
7.660000e+00
7.670000e+00
7.680000e+00
7.690000e+00
7.700000e+00
7.710000e+00
7.720000e+00
7.730000e+00
7.740000e+00
7.750000e+00
7.760000e+00
7.770000e+00
7.780000e+00
7.790000e+00
7.800000e+00
7.810000e+00
7.820000e+00
7.830000e+00
7.840000e+00
7.850000e+00
7.860000e+00
7.870000e+00
7.880000e+00
7.890000e+00
7.900000e+00
7.910000e+00
7.920000e+00
7.930000e+00
7.940000e+00
7.950000e+00
7.960000e+00
7.970000e+00
7.980000e+00
7.990000e+00
8
8.010000e+00
8.020000e+00
8.030000e+00
8.040000e+00
8.050000e+00
8.060000e+00
8.070000e+00
8.080000e+00
8.090000e+00
8.100000e+00
8.110000e+00
8.120000e+00
8.130000e+00
8.140000e+00
8.150000e+00
8.160000e+00
8.170000e+00
8.180000e+00
8.190000e+00
8.200000e+00
8.210000e+00
8.220000e+00
8.230000e+00
8.240000e+00
8.250000e+00
8.260000e+00
8.270000e+00
8.280000e+00
8.290000e+00
8.300000e+00
8.310000e+00
8.320000e+00
8.330000e+00
8.340000e+00
8.350000e+00
8.360000e+00
8.370000e+00
8.380000e+00
8.390000e+00
8.400000e+00
8.410000e+00
8.420000e+00
8.430000e+00
8.440000e+00
8.450000e+00
8.460000e+00
8.470000e+00
8.480000e+00
8.490000e+00
8.500000e+00
8.510000e+00
8.520000e+00
8.530000e+00
8.540000e+00
8.550000e+00
8.560000e+00
8.570000e+00
8.580000e+00
8.590000e+00
8.600000e+00
8.610000e+00
8.620000e+00
8.630000e+00
8.640000e+00
8.650000e+00
8.660000e+00
8.670000e+00
8.680000e+00
8.690000e+00
8.700000e+00
8.710000e+00
8.720000e+00
8.730000e+00
8.740000e+00
8.750000e+00
8.760000e+00
8.770000e+00
8.780000e+00
8.790000e+00
8.800000e+00
8.810000e+00
8.820000e+00
8.830000e+00
8.840000e+00
8.850000e+00
8.860000e+00
8.870000e+00
8.880000e+00
8.890000e+00
8.900000e+00
8.910000e+00
8.920000e+00
8.930000e+00
8.940000e+00
8.950000e+00
8.960000e+00
8.970000e+00
8.980000e+00
8.990000e+00
9
9.010000e+00
9.020000e+00
9.030000e+00
9.040000e+00
9.050000e+00
9.060000e+00
9.070000e+00
9.080000e+00
9.090000e+00
9.100000e+00
9.110000e+00
9.120000e+00
9.130000e+00
9.140000e+00
9.150000e+00
9.160000e+00
9.170000e+00
9.180000e+00
9.190000e+00
9.200000e+00
9.210000e+00
9.220000e+00
9.230000e+00
9.240000e+00
9.250000e+00
9.260000e+00
9.270000e+00
9.280000e+00
9.290000e+00
9.300000e+00
9.310000e+00
9.320000e+00
9.330000e+00
9.340000e+00
9.350000e+00
9.360000e+00
9.370000e+00
9.380000e+00
9.390000e+00
9.400000e+00
9.410000e+00
9.420000e+00
9.430000e+00
9.440000e+00
9.450000e+00
9.460000e+00
9.470000e+00
9.480000e+00
9.490000e+00
9.500000e+00
9.510000e+00
9.520000e+00
9.530000e+00
9.540000e+00
9.550000e+00
9.560000e+00
9.570000e+00
9.580000e+00
9.590000e+00
9.600000e+00
9.610000e+00
9.620000e+00
9.630000e+00
9.640000e+00
9.650000e+00
9.660000e+00
9.670000e+00
9.680000e+00
9.690000e+00
9.700000e+00
9.710000e+00
9.720000e+00
9.730000e+00
9.740000e+00
9.750000e+00
9.760000e+00
9.770000e+00
9.780000e+00
9.790000e+00
9.800000e+00
9.810000e+00
9.820000e+00
9.830000e+00
9.840000e+00
9.850000e+00
9.860000e+00
9.870000e+00
9.880000e+00
9.890000e+00
9.900000e+00
9.910000e+00
9.920000e+00
9.930000e+00
9.940000e+00
9.950000e+00
9.960000e+00
9.970000e+00
9.980000e+00
9.990000e+00
3.368493e+00
-2.293120e+00
1.234918e-02
-5.498062e-01
6.269201e+00
-1.425243e-01
-1.413317e+00
6.680248e+00
1.736371e+00
5.603102e+00
2.044780e+00
5.267025e+00
-8.676441e+00
6.783627e+00
1.405391e+01
1.026075e+01
9.763165e+00
3.952760e+00
5.755583e+00
5.520290e+00
4.008676e+00
-1.556193e+00
-1.693281e-01
-2.678498e-01
-2.681428e+00
3.184184e+00
1.116025e+01
-8.497545e+00
-1.447611e+00
-9.433283e+00
4.161400e+00
4.503129e+00
-1.116725e+01
6.426559e+00
-9.263080e+00
-3.312171e+00
4.578765e-01
-4.790017e+00
5.643867e+00
7.859238e+00
-5.014750e+00
-1.478843e+01
-6.414729e+00
-8.030326e+00
-6.764749e+00
-7.768383e+00
-1.035537e+00
9.661109e+00
-4.052173e+00
-1.603465e+00
5.832375e+00
6.264994e+00
2.900641e+00
6.002122e+00
5.780111e+00
2.211199e-01
5.085447e+00
2.294123e+00
9.042158e-02
8.426831e+00
6.043607e+00
4.967948e+00
7.293099e+00
1.046443e+01
7.001442e+00
5.419022e+00
5.238513e+00
3.547965e+00
-1.017792e+00
6.480337e+00
9.395676e+00
-4.491059e-01
1.172810e+01
9.996357e-01
3.127414e-01
-3.488003e+00
-3.683523e+00
-5.370899e+00
1.775944e-01
5.388982e+00
-8.893603e-01
-2.803070e-02
1.858640e+00
-1.764908e+01
-6.046479e+00
-3.299223e+00
-1.199834e+00
-1.097857e+01
-9.175150e+00
3.409580e-02
-4.387083e+00
-1.029717e+00
-8.656739e+00
-1.208437e+01
-9.848779e-02
2.218593e+00
4.769230e+00
-1.047015e+01
-8.698225e+00
-8.421678e+00
-2.083154e-01
-2.025091e+00
8.584737e+00
-4.466127e+00
-5.320690e+00
4.774467e+00
9.869141e+00
-9.875876e-02
-2.474667e+00
3.048510e+00
-4.378007e+00
4.006043e+00
8.287742e+00
5.542999e+00
-4.760121e+00
2.380190e+00
3.698521e+00
1.421933e+01
9.424852e+00
4.013639e+00
1.007352e+01
-2.627530e+00
-1.494012e-01
7.668831e+00
7.233754e+00
2.651880e+00
9.222681e-01
-4.811504e+00
1.635186e+00
-6.362162e+00
5.214626e-01
-1.137222e+00
2.841992e+00
-5.421202e+00
-6.588887e-01
-4.803752e-01
-9.528655e+00
-4.744736e+00
2.151808e+00
-5.341352e+00
-7.249464e+00
-2.969806e+00
-5.965268e+00
-1.574058e+00
-3.614807e+00
-2.221550e+00
8.774660e-01
5.939538e+00
1.786437e+00
8.041031e+00
-1.014181e+01
-2.045397e+00
1.652902e+00
-3.303825e+00
-4.953295e+00
5.215085e+00
6.004489e+00
5.236681e+00
6.566345e+00
9.002897e-01
3.217897e+00
5.370192e+00
2.395316e+00
7.185365e+00
1.686289e+01
2.035112e+00
7.076829e+00
-1.880260e+00
9.552312e+00
-2.299273e+00
3.394719e+00
-8.715797e-01
4.649391e+00
1.937644e+00
1.311550e+00
1.574546e+01
-2.872070e+00
-8.404224e-01
1.182319e+01
-8.329603e+00
-7.617178e-01
-9.681334e+00
3.026050e-01
-3.513767e+00
-1.948058e+00
-6.458605e+00
-3.560145e+00
2.908261e+00
-1.552131e+01
-1.208578e+01
-1.726881e+00
-7.069011e+00
-5.335257e+00
-1.139995e+01
-8.428661e+00
-5.768851e+00
-7.020046e+00
-7.141631e+00
-4.123197e+00
-5.765777e+00
6.709419e+00
-3.889728e+00
1.110368e+01
9.370229e-01
-3.867648e+00
6.545342e-01
8.576994e+00
9.195003e+00
4.654651e+00
5.232168e+00
6.968754e+00
-3.375888e+00
1.237257e+00
-4.696440e+00
2.540588e+00
9.810673e+00
8.795889e+00
1.659056e+01
5.684231e+00
-6.483412e+00
1.197371e+01
9.007553e+00
-1.321222e+00
1.719098e+00
3.619096e+00
9.235358e-01
1.950341e+00
-2.444451e+00
-2.283431e+00
-1.780944e+00
-6.299421e+00
4.568374e+00
-2.822881e+00
1.405411e-01
-8.114256e+00
-9.822442e+00
-5.491606e+00
-6.789820e+00
1.396575e-01
-2.873232e+00
-3.003767e+00
-1.247780e+01
-9.428233e+00
-2.779519e+00
-4.680372e+00
4.320531e+00
5.279288e+00
-3.776028e+00
3.902742e+00
6.776363e+00
1.604926e+00
8.317799e+00
5.785103e+00
1.942566e+00
5.810497e+00
3.101944e+00
8.665211e-01
5.582069e+00
4.770878e+00
3.429948e+00
1.456144e+01
7.009916e+00
1.948635e+01
4.045134e+00
7.858247e+00
1.235937e+01
1.748574e+01
4.809685e+00
-1.096753e+00
6.563330e+00
-4.248373e+00
8.521583e-01
3.448647e+00
9.328641e+00
8.717201e+00
8.621930e-01
4.897817e+00
-2.212428e+00
1.713692e+00
6.980320e+00
-2.742913e+00
-5.801724e+00
-7.350767e+00
-1.569059e+00
1.477761e+00
5.564100e+00
-4.515874e+00
-3.639127e+00
-7.309339e+00
4.140636e+00
-4.181470e+00
-6.161352e+00
7.067689e+00
1.340488e-01
-3.227752e-01
-8.775799e+00
-1.221123e+00
-2.084880e-01
-7.475185e+00
-2.181418e+00
-2.024609e+00
3.691742e+00
-3.020852e+00
8.254340e+00
1.231543e+01
2.229171e+00
3.861006e+00
6.448532e+00
9.869775e+00
6.405255e+00
5.789457e+00
1.505267e+00
2.988320e+00
7.521233e+00
1.320036e+01
7.906267e+00
-8.214639e-01
7.316718e+00
4.389989e+00
3.078768e+00
2.430768e+00
-1.802684e+00
-1.208875e-02
-3.316051e+00
-2.102974e+00
-4.136471e-01
-6.597948e-01
-2.959155e+00
-2.852370e+00
-2.052946e+00
-5.972998e-02
3.861727e+00
2.459108e-01
-4.725232e+00
-8.495096e-01
-5.673929e+00
-1.394046e+01
-1.726216e+01
-1.440244e+01
-7.089187e+00
-8.804468e+00
-8.853906e+00
-4.386478e+00
-7.084683e+00
-6.093557e+00
9.182162e-01
2.485194e+00
1.131088e+01
1.039101e+00
9.071239e-02
-2.870670e+00
-7.751751e-01
2.202798e-01
-7.906836e+00
1.396930e-01
5.877619e+00
8.716031e-02
6.260943e+00
9.546966e+00
1.063880e+01
9.590548e+00
-5.395651e+00
3.012578e+00
1.003342e+01
7.010147e+00
4.470538e+00
6.024181e+00
8.942227e+00
3.623393e+00
-1.246707e+00
1.450326e+00
1.182439e+00
6.573039e+00
3.942412e+00
4.269092e+00
1.739175e+00
-1.533175e+00
-3.003190e-01
-5.084051e-01
-9.586762e+00
-2.632360e+00
3.388789e-01
-5.401483e+00
2.710573e+00
-2.406229e+00
-7.166023e+00
-5.555830e+00
-5.830300e+00
-2.940203e+00
-1.458896e-01
-5.263776e+00
-1.502940e+00
4.922928e+00
7.420962e-01
2.218330e-01
-7.821979e+00
-6.062077e+00
-1.596448e+00
-2.517202e+00
-9.177688e+00
-7.572116e+00
6.183392e+00
-1.776675e+00
1.320093e+01
-7.718877e+00
5.991761e+00
3.907620e+00
1.341602e-01
5.875139e+00
-1.740977e-01
8.103142e+00
4.253668e+00
-4.051131e+00
-7.669443e+00
3.366953e+00
1.079333e+01
6.114529e+00
5.422667e+00
8.289361e+00
-2.667994e+00
1.065354e+01
-1.873106e+00
1.780756e+00
-1.211821e+00
4.696215e-01
-1.072259e+01
6.087981e+00
8.481774e-01
7.960325e+00
4.861966e+00
-2.293738e+00
-7.241675e+00
-1.154908e+01
-3.207008e+00
-2.743793e+00
7.828375e-01
-9.791683e+00
-1.551973e+00
-5.477313e+00
-9.771985e+00
-1.835530e+00
-3.924830e+00
-5.765292e+00
5.596685e+00
1.052152e-01
-2.681279e+00
-3.919376e-02
-4.368100e-01
3.950291e-01
2.067069e+00
-3.017590e+00
-3.784233e+00
2.276181e+00
1.029750e+01
-1.076280e-01
-2.933711e+00
1.748254e+00
1.369702e+00
2.953042e+00
7.630694e+00
5.056315e+00
2.931785e+00
3.615627e+00
-1.086688e+00
7.391637e-01
-2.618740e+00
1.259659e+00
-2.133627e+00
-6.812535e-01
1.038156e+00
-3.651062e+00
2.124576e+00
3.791165e+00
-2.935281e+00
7.101106e+00
-6.930527e+00
-1.680812e+00
-8.029457e+00
-3.315069e+00
-9.215729e+00
-6.400886e+00
-8.002576e+00
-1.077560e+01
-1.547572e+01
-2.383383e+00
4.936412e+00
6.330536e+00
-6.915195e+00
-4.375820e+00
-6.248057e+00
-3.424489e+00
-8.389015e+00
-1.345085e+01
-4.097572e+00
-1.003012e+01
-1.326011e+01
8.480187e+00
-3.975934e+00
5.441018e-03
4.909898e+00
-8.423794e+00
3.118188e+00
4.522689e+00
3.224528e+00
4.180046e+00
1.108231e+00
7.519793e+00
-3.343515e-01
-1.284052e-01
7.421854e+00
1.223695e+01
1.987351e+00
1.620414e+00
6.494676e+00
1.014788e+01
9.904214e+00
6.559410e+00
1.979383e+00
7.999409e+00
3.902873e+00
1.041146e+01
-4.444913e+00
2.298091e+00
7.054622e+00
-2.752842e+00
-4.124125e+00
-6.199665e+00
-3.274498e+00
-3.091937e+00
-1.537681e+00
-6.767885e+00
-2.133739e+00
-5.873914e+00
-5.135504e+00
-8.030440e+00
-5.858641e+00
1.281257e+01
1.151170e+01
-9.987227e-02
-1.967263e+00
-1.209703e+01
-8.176069e+00
-7.686793e+00
-1.113270e+00
-5.260466e-01
-1.587534e+00
-3.127905e+00
-5.501282e+00
-4.463277e-01
5.494861e+00
2.136806e+00
1.106048e+00
3.760335e+00
3.793268e+00
-6.655775e+00
2.223781e+00
8.111781e-01
-6.380361e+00
-2.052999e+00
3.653676e+00
9.833491e+00
4.757087e+00
7.145716e+00
1.036063e+00
-5.749744e+00
4.915849e+00
-9.163192e-01
9.154813e+00
1.153002e+01
6.879486e-01
8.315462e+00
6.989627e+00
-4.985910e+00
1.714092e+00
2.837082e+00
3.614973e+00
3.662095e+00
2.765953e+00
1.800062e+00
-4.159048e+00
-1.630493e+00
-1.556353e+01
-1.069235e+01
8.584120e-01
-8.512375e+00
-3.426504e+00
2.754532e+00
-8.898852e+00
-8.942229e+00
-6.382918e+00
-1.598943e+00
-4.818988e+00
-8.742550e+00
-1.178009e+01
-5.755797e+00
-4.853671e+00
-6.067120e+00
-4.119067e+00
-7.491037e+00
1.693722e+00
-1.087310e+01
1.775519e+00
5.359130e+00
-1.434940e+00
3.105605e+00
5.206875e+00
8.313965e-01
3.847141e+00
5.914083e+00
-8.905813e-01
7.980011e+00
9.392014e+00
5.751709e+00
4.529871e+00
-1.036360e+00
7.538503e+00
-8.705626e-01
1.310536e+01
7.482968e+00
5.623135e+00
1.558722e+00
-8.285401e+00
-4.386339e+00
2.432667e+00
1.178405e+01
2.701236e+00
1.723872e-02
-4.590809e+00
-1.477897e+00
2.590010e+00
-3.621015e+00
6.912351e+00
-8.955810e+00
-5.173049e+00
-3.577442e+00
-1.421593e+01
-2.209667e+00
-5.136988e+00
-5.430956e+00
-1.930012e+00
-4.878944e-01
-1.242181e+00
-6.933886e+00
-4.022738e+00
-1.173717e+00
-8.413912e+00
-6.606638e+00
-3.006853e+00
-8.459280e-02
8.753764e+00
3.986316e+00
-2.011617e+00
-2.672519e+00
8.541021e+00
1.509418e+01
2.967105e+00
5.466560e-01
-3.273494e+00
9.464704e+00
6.701699e+00
1.153338e+01
1.360023e+00
7.037337e+00
2.255729e+00
1.141154e+01
1.690313e+00
3.402544e+00
1.552762e+00
7.824352e+00
4.688610e+00
-2.669785e+00
-9.420523e-01
-3.139237e+00
4.409408e+00
3.191262e+00
-7.177063e+00
-9.256040e+00
-8.080191e-01
1.894034e+00
-1.752137e+00
-1.124569e+01
-1.205805e+01
-5.152039e-01
-5.878281e+00
-7.139891e+00
1.516721e+00
-8.768424e+00
-3.777100e+00
-2.056774e+00
1.800767e-01
-8.075993e+00
-2.008574e+00
9.888818e+00
-1.148024e+01
-1.734594e+00
-4.896782e+00
-7.526488e+00
-6.969119e+00
4.755348e-01
1.052569e+01
-3.969129e+00
3.757243e+00
-7.813441e-01
1.269204e+01
6.114357e+00
3.058415e+00
7.003867e+00
3.887443e+00
9.389511e+00
2.867216e+00
-1.802863e+00
5.151569e+00
1.195099e+01
-1.528802e+00
3.574377e+00
1.008844e+01
-4.391947e+00
8.278645e+00
8.615395e+00
5.366461e+00
-3.244589e-01
2.560476e+00
2.057866e+00
5.282281e+00
3.039429e+00
-2.751163e+00
6.567894e+00
-2.135039e+00
-6.152798e+00
-4.413487e+00
1.941909e+00
-1.570349e+00
1.589771e+00
-2.945754e+00
8.594518e+00
-1.277448e+01
-7.116409e+00
-5.947083e+00
-5.388202e+00
1.377185e+00
-4.609072e+00
-5.827490e+00
-4.246752e+00
-3.230141e-02
-6.388117e+00
1.241587e-01
-9.251604e+00
-1.266019e+00
-5.181896e+00
-3.465194e+00
1.412646e+00
-5.424508e+00
-4.471934e+00
-6.707254e+00
-9.716071e+00
1.372301e+00
8.754704e+00
2.880094e+00
3.419996e+00
1.943354e-02
1.362293e+01
4.656484e+00
1.230456e+01
7.335861e+00
3.721507e+00
9.856988e+00
8.751759e+00
2.734643e+00
9.334293e+00
1.145290e+01
2.023067e+00
9.429827e-01
4.112503e+00
3.639657e+00
5.569049e+00
-2.779525e-01
3.853727e+00
4.636961e+00
-7.041901e-01
-1.829661e+00
-9.798334e+00
-1.016305e+01
-1.215780e+01
-1.137286e+01
-5.984179e+00
-1.313887e+01
6.444223e+00
-7.579012e-01
-1.448403e+01
-9.692074e+00
-4.340185e+00
-1.235956e+01
-6.152988e+00
1.539644e+00
-4.723890e+00
-4.084146e+00
-8.399018e+00
-5.587513e+00
-8.771744e+00
7.686112e-01
-2.261038e+00
4.969275e+00
8.200146e+00
8.195197e+00
3.216850e+00
1.228007e+00
-2.215606e+00
4.507902e+00
8.650883e+00
2.090514e+00
2.937634e+00
7.000824e+00
8.465403e+00
-2.630264e+00
5.785863e+00
6.043434e+00
4.453020e+00
9.615337e+00
3.029642e+00
1.680988e-01
4.906768e+00
4.895136e+00
5.043995e-01
4.586640e+00
-7.868274e+00
-6.374585e+00
-1.689232e+01
7.261625e-01
-7.044431e+00
-3.487016e+00
2.695185e+00
-2.291369e+00
-5.056703e+00
-7.534210e+00
-5.041442e+00
-1.431618e+00
-1.261804e+01
-5.867703e+00
-1.922497e+00
-1.300718e+01
-2.359513e+00
-1.836921e+00
-9.000445e+00
-1.131232e+01
-7.752849e-01
1.911369e+00
1.468209e+00
2.942206e+00
-6.383571e+00
2.718352e+00
-2.900048e+00
-2.605949e+00
-7.306546e+00
6.373082e+00
2.301773e+00
7.147966e+00
1.049602e+01
-1.896419e+00
7.804856e+00
5.189304e+00
1.027764e+01
1.144202e+01
9.936819e+00
1.437901e+00
4.404343e+00
5.766980e+00
1.963223e+01
9.424949e+00
1.445772e+01
4.618918e+00
3.410299e+00
5.287222e+00
-5.495722e-01
8.088880e+00
7.433398e-01
-5.868009e+00
4.632352e+00
-8.448692e+00
-1.081320e+01
-1.154101e+00
-8.281267e+00
-8.852703e+00
-5.660339e+00
-7.595925e+00
-6.322592e+00
-3.703967e+00
-1.062876e+01
-1.057548e+01
-1.464320e+01
-5.870535e+00
-4.828173e-01
-7.306487e+00
-1.346877e+00
-1.213788e+00
1.049266e+00
1.198947e+00
-6.835262e+00
-7.093394e+00
-1.772013e+00
-4.376712e+00
7.263710e+00
7.951674e+00
2.489645e+00
6.735706e-01
5.945095e+00
4.665751e-01
3.279405e+00
1.263023e+00
4.381447e+00
9.436919e+00
7.516616e+00
9.637337e+00
-4.277655e-01
5.353315e+00
-1.306361e-01
6.988442e+00
6.837171e+00
1.163297e+01
1.034674e+01
7.565157e+00
1.001345e+00
2.161807e-01
-8.665874e+00
-1.635497e+00
-8.034144e+00
3.649129e+00
2.978207e+00
-1.189436e+00
-3.981351e+00
-1.506066e+00
5.674052e+00
4.199151e+00
-5.096750e+00
-2.449807e+00
-9.442072e+00
-2.442611e+00
-1.341456e+00
-1.025737e+00
-1.349055e+01
-3.380447e+00
-1.002741e+01
-7.135879e+00
-6.497122e-01
-2.298747e+00
-3.759691e+00
9.037535e-01
6.746012e+00
-3.989508e+00
-7.223437e+00
-6.012092e+00
-4.721396e+00
-3.155168e+00
3.356342e+00
-9.556811e+00
2.606301e+00
-1.762197e+00
8.438792e+00
-4.880458e-01
4.627552e+00
5.651750e-01
2.298541e+00
4.602854e+00
4.690485e+00
2.901895e+00
1.067836e+01
7.196962e+00
1.311532e+01
1.905369e+00
8.187693e+00
-7.949765e+00
5.543560e+00
4.078714e+00
2.184162e-01
5.357615e+00
5.919637e+00
6.168028e+00
2.377117e+00
2.399321e+00
-4.962024e+00
-8.072042e+00
-4.864795e+00
-3.366290e+00
-9.586958e-02
-9.104010e+00
-7.656072e+00
9.808070e+00
-7.899030e+00
5.147208e+00
6.599389e-01
-6.708337e+00
-4.337002e+00
-4.870973e+00
-1.486067e+00
2.912848e+00
-1.209351e+01
6.370701e+00
4.978908e-01
-5.553716e+00
-2.644019e+00
4.454566e-01
