 TITLE = "testsignal"
VARIABLES = "t [s]" "PH_0_x-1_y-2_z0"
ZONE T="testsignal", F=BLOCK, I=300000, DT=(SINGLE)
0
1.000000e-03
2.000000e-03
3.000000e-03
4.000000e-03
5.000000e-03
6.000000e-03
7.000000e-03
8.000000e-03
9.000000e-03
1.000000e-02
1.100000e-02
1.200000e-02
1.300000e-02
1.400000e-02
1.500000e-02
1.600000e-02
1.700000e-02
1.800000e-02
1.900000e-02
2.000000e-02
2.100000e-02
2.200000e-02
2.300000e-02
2.400000e-02
2.500000e-02
2.600000e-02
2.700000e-02
2.800000e-02
2.900000e-02
3.000000e-02
3.100000e-02
3.200000e-02
3.300000e-02
3.400000e-02
3.500000e-02
3.600000e-02
3.700000e-02
3.800000e-02
3.900000e-02
4.000000e-02
4.100000e-02
4.200000e-02
4.300000e-02
4.400000e-02
4.500000e-02
4.600000e-02
4.700000e-02
4.800000e-02
4.900000e-02
5.000000e-02
5.100000e-02
5.200000e-02
5.300000e-02
5.400000e-02
5.500000e-02
5.600000e-02
5.700000e-02
5.800000e-02
5.900000e-02
6.000000e-02
6.100000e-02
6.200000e-02
6.300000e-02
6.400000e-02
6.500000e-02
6.600000e-02
6.700000e-02
6.800000e-02
6.900000e-02
7.000000e-02
7.100000e-02
7.200000e-02
7.300000e-02
7.400000e-02
7.500000e-02
7.600000e-02
7.700000e-02
7.800000e-02
7.900000e-02
8.000000e-02
8.100000e-02
8.200000e-02
8.300000e-02
8.400000e-02
8.500000e-02
8.600000e-02
8.700000e-02
8.800000e-02
8.900000e-02
9.000000e-02
9.100000e-02
9.200000e-02
9.300000e-02
9.400000e-02
9.500000e-02
9.600000e-02
9.700000e-02
9.800000e-02
9.900000e-02
1.000000e-01
1.010000e-01
1.020000e-01
1.030000e-01
1.040000e-01
1.050000e-01
1.060000e-01
1.070000e-01
1.080000e-01
1.090000e-01
1.100000e-01
1.110000e-01
1.120000e-01
1.130000e-01
1.140000e-01
1.150000e-01
1.160000e-01
1.170000e-01
1.180000e-01
1.190000e-01
1.200000e-01
1.210000e-01
1.220000e-01
1.230000e-01
1.240000e-01
1.250000e-01
1.260000e-01
1.270000e-01
1.280000e-01
1.290000e-01
1.300000e-01
1.310000e-01
1.320000e-01
1.330000e-01
1.340000e-01
1.350000e-01
1.360000e-01
1.370000e-01
1.380000e-01
1.390000e-01
1.400000e-01
1.410000e-01
1.420000e-01
1.430000e-01
1.440000e-01
1.450000e-01
1.460000e-01
1.470000e-01
1.480000e-01
1.490000e-01
1.500000e-01
1.510000e-01
1.520000e-01
1.530000e-01
1.540000e-01
1.550000e-01
1.560000e-01
1.570000e-01
1.580000e-01
1.590000e-01
1.600000e-01
1.610000e-01
1.620000e-01
1.630000e-01
1.640000e-01
1.650000e-01
1.660000e-01
1.670000e-01
1.680000e-01
1.690000e-01
1.700000e-01
1.710000e-01
1.720000e-01
1.730000e-01
1.740000e-01
1.750000e-01
1.760000e-01
1.770000e-01
1.780000e-01
1.790000e-01
1.800000e-01
1.810000e-01
1.820000e-01
1.830000e-01
1.840000e-01
1.850000e-01
1.860000e-01
1.870000e-01
1.880000e-01
1.890000e-01
1.900000e-01
1.910000e-01
1.920000e-01
1.930000e-01
1.940000e-01
1.950000e-01
1.960000e-01
1.970000e-01
1.980000e-01
1.990000e-01
2.000000e-01
2.010000e-01
2.020000e-01
2.030000e-01
2.040000e-01
2.050000e-01
2.060000e-01
2.070000e-01
2.080000e-01
2.090000e-01
2.100000e-01
2.110000e-01
2.120000e-01
2.130000e-01
2.140000e-01
2.150000e-01
2.160000e-01
2.170000e-01
2.180000e-01
2.190000e-01
2.200000e-01
2.210000e-01
2.220000e-01
2.230000e-01
2.240000e-01
2.250000e-01
2.260000e-01
2.270000e-01
2.280000e-01
2.290000e-01
2.300000e-01
2.310000e-01
2.320000e-01
2.330000e-01
2.340000e-01
2.350000e-01
2.360000e-01
2.370000e-01
2.380000e-01
2.390000e-01
2.400000e-01
2.410000e-01
2.420000e-01
2.430000e-01
2.440000e-01
2.450000e-01
2.460000e-01
2.470000e-01
2.480000e-01
2.490000e-01
2.500000e-01
2.510000e-01
2.520000e-01
2.530000e-01
2.540000e-01
2.550000e-01
2.560000e-01
2.570000e-01
2.580000e-01
2.590000e-01
2.600000e-01
2.610000e-01
2.620000e-01
2.630000e-01
2.640000e-01
2.650000e-01
2.660000e-01
2.670000e-01
2.680000e-01
2.690000e-01
2.700000e-01
2.710000e-01
2.720000e-01
2.730000e-01
2.740000e-01
2.750000e-01
2.760000e-01
2.770000e-01
2.780000e-01
2.790000e-01
2.800000e-01
2.810000e-01
2.820000e-01
2.830000e-01
2.840000e-01
2.850000e-01
2.860000e-01
2.870000e-01
2.880000e-01
2.890000e-01
2.900000e-01
2.910000e-01
2.920000e-01
2.930000e-01
2.940000e-01
2.950000e-01
2.960000e-01
2.970000e-01
2.980000e-01
2.990000e-01
3.000000e-01
3.010000e-01
3.020000e-01
3.030000e-01
3.040000e-01
3.050000e-01
3.060000e-01
3.070000e-01
3.080000e-01
3.090000e-01
3.100000e-01
3.110000e-01
3.120000e-01
3.130000e-01
3.140000e-01
3.150000e-01
3.160000e-01
3.170000e-01
3.180000e-01
3.190000e-01
3.200000e-01
3.210000e-01
3.220000e-01
3.230000e-01
3.240000e-01
3.250000e-01
3.260000e-01
3.270000e-01
3.280000e-01
3.290000e-01
3.300000e-01
3.310000e-01
3.320000e-01
3.330000e-01
3.340000e-01
3.350000e-01
3.360000e-01
3.370000e-01
3.380000e-01
3.390000e-01
3.400000e-01
3.410000e-01
3.420000e-01
3.430000e-01
3.440000e-01
3.450000e-01
3.460000e-01
3.470000e-01
3.480000e-01
3.490000e-01
3.500000e-01
3.510000e-01
3.520000e-01
3.530000e-01
3.540000e-01
3.550000e-01
3.560000e-01
3.570000e-01
3.580000e-01
3.590000e-01
3.600000e-01
3.610000e-01
3.620000e-01
3.630000e-01
3.640000e-01
3.650000e-01
3.660000e-01
3.670000e-01
3.680000e-01
3.690000e-01
3.700000e-01
3.710000e-01
3.720000e-01
3.730000e-01
3.740000e-01
3.750000e-01
3.760000e-01
3.770000e-01
3.780000e-01
3.790000e-01
3.800000e-01
3.810000e-01
3.820000e-01
3.830000e-01
3.840000e-01
3.850000e-01
3.860000e-01
3.870000e-01
3.880000e-01
3.890000e-01
3.900000e-01
3.910000e-01
3.920000e-01
3.930000e-01
3.940000e-01
3.950000e-01
3.960000e-01
3.970000e-01
3.980000e-01
3.990000e-01
4.000000e-01
4.010000e-01
4.020000e-01
4.030000e-01
4.040000e-01
4.050000e-01
4.060000e-01
4.070000e-01
4.080000e-01
4.090000e-01
4.100000e-01
4.110000e-01
4.120000e-01
4.130000e-01
4.140000e-01
4.150000e-01
4.160000e-01
4.170000e-01
4.180000e-01
4.190000e-01
4.200000e-01
4.210000e-01
4.220000e-01
4.230000e-01
4.240000e-01
4.250000e-01
4.260000e-01
4.270000e-01
4.280000e-01
4.290000e-01
4.300000e-01
4.310000e-01
4.320000e-01
4.330000e-01
4.340000e-01
4.350000e-01
4.360000e-01
4.370000e-01
4.380000e-01
4.390000e-01
4.400000e-01
4.410000e-01
4.420000e-01
4.430000e-01
4.440000e-01
4.450000e-01
4.460000e-01
4.470000e-01
4.480000e-01
4.490000e-01
4.500000e-01
4.510000e-01
4.520000e-01
4.530000e-01
4.540000e-01
4.550000e-01
4.560000e-01
4.570000e-01
4.580000e-01
4.590000e-01
4.600000e-01
4.610000e-01
4.620000e-01
4.630000e-01
4.640000e-01
4.650000e-01
4.660000e-01
4.670000e-01
4.680000e-01
4.690000e-01
4.700000e-01
4.710000e-01
4.720000e-01
4.730000e-01
4.740000e-01
4.750000e-01
4.760000e-01
4.770000e-01
4.780000e-01
4.790000e-01
4.800000e-01
4.810000e-01
4.820000e-01
4.830000e-01
4.840000e-01
4.850000e-01
4.860000e-01
4.870000e-01
4.880000e-01
4.890000e-01
4.900000e-01
4.910000e-01
4.920000e-01
4.930000e-01
4.940000e-01
4.950000e-01
4.960000e-01
4.970000e-01
4.980000e-01
4.990000e-01
5.000000e-01
5.010000e-01
5.020000e-01
5.030000e-01
5.040000e-01
5.050000e-01
5.060000e-01
5.070000e-01
5.080000e-01
5.090000e-01
5.100000e-01
5.110000e-01
5.120000e-01
5.130000e-01
5.140000e-01
5.150000e-01
5.160000e-01
5.170000e-01
5.180000e-01
5.190000e-01
5.200000e-01
5.210000e-01
5.220000e-01
5.230000e-01
5.240000e-01
5.250000e-01
5.260000e-01
5.270000e-01
5.280000e-01
5.290000e-01
5.300000e-01
5.310000e-01
5.320000e-01
5.330000e-01
5.340000e-01
5.350000e-01
5.360000e-01
5.370000e-01
5.380000e-01
5.390000e-01
5.400000e-01
5.410000e-01
5.420000e-01
5.430000e-01
5.440000e-01
5.450000e-01
5.460000e-01
5.470000e-01
5.480000e-01
5.490000e-01
5.500000e-01
5.510000e-01
5.520000e-01
5.530000e-01
5.540000e-01
5.550000e-01
5.560000e-01
5.570000e-01
5.580000e-01
5.590000e-01
5.600000e-01
5.610000e-01
5.620000e-01
5.630000e-01
5.640000e-01
5.650000e-01
5.660000e-01
5.670000e-01
5.680000e-01
5.690000e-01
5.700000e-01
5.710000e-01
5.720000e-01
5.730000e-01
5.740000e-01
5.750000e-01
5.760000e-01
5.770000e-01
5.780000e-01
5.790000e-01
5.800000e-01
5.810000e-01
5.820000e-01
5.830000e-01
5.840000e-01
5.850000e-01
5.860000e-01
5.870000e-01
5.880000e-01
5.890000e-01
5.900000e-01
5.910000e-01
5.920000e-01
5.930000e-01
5.940000e-01
5.950000e-01
5.960000e-01
5.970000e-01
5.980000e-01
5.990000e-01
6.000000e-01
6.010000e-01
6.020000e-01
6.030000e-01
6.040000e-01
6.050000e-01
6.060000e-01
6.070000e-01
6.080000e-01
6.090000e-01
6.100000e-01
6.110000e-01
6.120000e-01
6.130000e-01
6.140000e-01
6.150000e-01
6.160000e-01
6.170000e-01
6.180000e-01
6.190000e-01
6.200000e-01
6.210000e-01
6.220000e-01
6.230000e-01
6.240000e-01
6.250000e-01
6.260000e-01
6.270000e-01
6.280000e-01
6.290000e-01
6.300000e-01
6.310000e-01
6.320000e-01
6.330000e-01
6.340000e-01
6.350000e-01
6.360000e-01
6.370000e-01
6.380000e-01
6.390000e-01
6.400000e-01
6.410000e-01
6.420000e-01
6.430000e-01
6.440000e-01
6.450000e-01
6.460000e-01
6.470000e-01
6.480000e-01
6.490000e-01
6.500000e-01
6.510000e-01
6.520000e-01
6.530000e-01
6.540000e-01
6.550000e-01
6.560000e-01
6.570000e-01
6.580000e-01
6.590000e-01
6.600000e-01
6.610000e-01
6.620000e-01
6.630000e-01
6.640000e-01
6.650000e-01
6.660000e-01
6.670000e-01
6.680000e-01
6.690000e-01
6.700000e-01
6.710000e-01
6.720000e-01
6.730000e-01
6.740000e-01
6.750000e-01
6.760000e-01
6.770000e-01
6.780000e-01
6.790000e-01
6.800000e-01
6.810000e-01
6.820000e-01
6.830000e-01
6.840000e-01
6.850000e-01
6.860000e-01
6.870000e-01
6.880000e-01
6.890000e-01
6.900000e-01
6.910000e-01
6.920000e-01
6.930000e-01
6.940000e-01
6.950000e-01
6.960000e-01
6.970000e-01
6.980000e-01
6.990000e-01
7.000000e-01
7.010000e-01
7.020000e-01
7.030000e-01
7.040000e-01
7.050000e-01
7.060000e-01
7.070000e-01
7.080000e-01
7.090000e-01
7.100000e-01
7.110000e-01
7.120000e-01
7.130000e-01
7.140000e-01
7.150000e-01
7.160000e-01
7.170000e-01
7.180000e-01
7.190000e-01
7.200000e-01
7.210000e-01
7.220000e-01
7.230000e-01
7.240000e-01
7.250000e-01
7.260000e-01
7.270000e-01
7.280000e-01
7.290000e-01
7.300000e-01
7.310000e-01
7.320000e-01
7.330000e-01
7.340000e-01
7.350000e-01
7.360000e-01
7.370000e-01
7.380000e-01
7.390000e-01
7.400000e-01
7.410000e-01
7.420000e-01
7.430000e-01
7.440000e-01
7.450000e-01
7.460000e-01
7.470000e-01
7.480000e-01
7.490000e-01
7.500000e-01
7.510000e-01
7.520000e-01
7.530000e-01
7.540000e-01
7.550000e-01
7.560000e-01
7.570000e-01
7.580000e-01
7.590000e-01
7.600000e-01
7.610000e-01
7.620000e-01
7.630000e-01
7.640000e-01
7.650000e-01
7.660000e-01
7.670000e-01
7.680000e-01
7.690000e-01
7.700000e-01
7.710000e-01
7.720000e-01
7.730000e-01
7.740000e-01
7.750000e-01
7.760000e-01
7.770000e-01
7.780000e-01
7.790000e-01
7.800000e-01
7.810000e-01
7.820000e-01
7.830000e-01
7.840000e-01
7.850000e-01
7.860000e-01
7.870000e-01
7.880000e-01
7.890000e-01
7.900000e-01
7.910000e-01
7.920000e-01
7.930000e-01
7.940000e-01
7.950000e-01
7.960000e-01
7.970000e-01
7.980000e-01
7.990000e-01
8.000000e-01
8.010000e-01
8.020000e-01
8.030000e-01
8.040000e-01
8.050000e-01
8.060000e-01
8.070000e-01
8.080000e-01
8.090000e-01
8.100000e-01
8.110000e-01
8.120000e-01
8.130000e-01
8.140000e-01
8.150000e-01
8.160000e-01
8.170000e-01
8.180000e-01
8.190000e-01
8.200000e-01
8.210000e-01
8.220000e-01
8.230000e-01
8.240000e-01
8.250000e-01
8.260000e-01
8.270000e-01
8.280000e-01
8.290000e-01
8.300000e-01
8.310000e-01
8.320000e-01
8.330000e-01
8.340000e-01
8.350000e-01
8.360000e-01
8.370000e-01
8.380000e-01
8.390000e-01
8.400000e-01
8.410000e-01
8.420000e-01
8.430000e-01
8.440000e-01
8.450000e-01
8.460000e-01
8.470000e-01
8.480000e-01
8.490000e-01
8.500000e-01
8.510000e-01
8.520000e-01
8.530000e-01
8.540000e-01
8.550000e-01
8.560000e-01
8.570000e-01
8.580000e-01
8.590000e-01
8.600000e-01
8.610000e-01
8.620000e-01
8.630000e-01
8.640000e-01
8.650000e-01
8.660000e-01
8.670000e-01
8.680000e-01
8.690000e-01
8.700000e-01
8.710000e-01
8.720000e-01
8.730000e-01
8.740000e-01
8.750000e-01
8.760000e-01
8.770000e-01
8.780000e-01
8.790000e-01
8.800000e-01
8.810000e-01
8.820000e-01
8.830000e-01
8.840000e-01
8.850000e-01
8.860000e-01
8.870000e-01
8.880000e-01
8.890000e-01
8.900000e-01
8.910000e-01
8.920000e-01
8.930000e-01
8.940000e-01
8.950000e-01
8.960000e-01
8.970000e-01
8.980000e-01
8.990000e-01
9.000000e-01
9.010000e-01
9.020000e-01
9.030000e-01
9.040000e-01
9.050000e-01
9.060000e-01
9.070000e-01
9.080000e-01
9.090000e-01
9.100000e-01
9.110000e-01
9.120000e-01
9.130000e-01
9.140000e-01
9.150000e-01
9.160000e-01
9.170000e-01
9.180000e-01
9.190000e-01
9.200000e-01
9.210000e-01
9.220000e-01
9.230000e-01
9.240000e-01
9.250000e-01
9.260000e-01
9.270000e-01
9.280000e-01
9.290000e-01
9.300000e-01
9.310000e-01
9.320000e-01
9.330000e-01
9.340000e-01
9.350000e-01
9.360000e-01
9.370000e-01
9.380000e-01
9.390000e-01
9.400000e-01
9.410000e-01
9.420000e-01
9.430000e-01
9.440000e-01
9.450000e-01
9.460000e-01
9.470000e-01
9.480000e-01
9.490000e-01
9.500000e-01
9.510000e-01
9.520000e-01
9.530000e-01
9.540000e-01
9.550000e-01
9.560000e-01
9.570000e-01
9.580000e-01
9.590000e-01
9.600000e-01
9.610000e-01
9.620000e-01
9.630000e-01
9.640000e-01
9.650000e-01
9.660000e-01
9.670000e-01
9.680000e-01
9.690000e-01
9.700000e-01
9.710000e-01
9.720000e-01
9.730000e-01
9.740000e-01
9.750000e-01
9.760000e-01
9.770000e-01
9.780000e-01
9.790000e-01
9.800000e-01
9.810000e-01
9.820000e-01
9.830000e-01
9.840000e-01
9.850000e-01
9.860000e-01
9.870000e-01
9.880000e-01
9.890000e-01
9.900000e-01
9.910000e-01
9.920000e-01
9.930000e-01
9.940000e-01
9.950000e-01
9.960000e-01
9.970000e-01
9.980000e-01
9.990000e-01
-3.836764e+00
6.387234e-01
-1.277869e-01
6.116729e+00
9.455642e-01
8.634296e-01
4.745806e-01
-5.030142e-01
-3.495314e+00
4.880970e+00
1.669243e+00
-9.001743e-01
-4.979484e-01
2.253206e+00
-1.260155e+00
-1.293865e+00
-1.822955e+00
-3.367606e+00
-9.859350e-01
-9.672579e-01
7.307475e-01
4.022199e-01
-7.234464e-01
1.030317e+00
-7.139437e-01
1.168848e+00
-3.851721e-01
-4.007385e-01
5.948181e-01
1.990584e+00
-1.995189e-01
-6.032159e-01
-2.676028e+00
-2.190350e+00
9.616904e-01
1.141492e+00
-2.412831e+00
-3.197938e+00
1.252362e+00
-1.176171e+00
-1.271948e+00
4.922286e-01
4.458181e-01
1.836310e+00
2.584155e+00
-1.944363e+00
5.698823e-01
-2.797300e-01
2.210409e-01
1.422736e-01
-2.486220e+00
7.319536e-01
-1.412373e+00
-5.042256e-01
-3.292289e-01
6.230673e-01
-7.184289e-01
-8.772270e-01
-3.506586e+00
4.875564e-01
3.296767e+00
-3.110028e+00
1.703897e+00
-4.721619e+00
-8.488019e-01
5.454100e-01
-3.227587e+00
2.333821e+00
1.662253e+00
3.115965e+00
1.561445e+00
-1.233454e+00
-5.306168e-01
-1.604534e+00
-5.127238e+00
-2.327706e-02
6.944184e-01
1.280377e+00
5.848051e-01
-3.275194e-01
-5.960358e+00
2.330737e+00
-2.281636e+00
-1.123188e+00
2.814504e+00
5.180728e-01
-4.277354e-01
2.216971e+00
-4.645751e-01
-2.931915e+00
2.344797e+00
-1.311421e+00
-1.710843e+00
-2.430463e+00
-3.353059e-01
2.994218e+00
4.651896e-01
-3.391918e+00
-1.813361e+00
8.212730e-01
3.116315e+00
6.414968e-01
-2.260682e-01
1.913838e+00
-1.471685e+00
1.874849e+00
-2.204975e+00
-1.521200e+00
-3.819345e+00
-1.205841e+00
1.466955e+00
3.084910e+00
2.174608e+00
-4.159770e+00
-2.283826e+00
-1.668289e+00
-1.176721e+00
1.165533e-01
7.932597e-01
-2.750575e-01
1.086214e-01
-1.295052e+00
-1.728885e+00
1.433491e+00
-2.435910e+00
-2.157101e-02
-1.014452e+00
2.853654e+00
-9.957028e-01
-3.055304e+00
-3.168504e+00
-1.073457e-01
3.014921e+00
-1.968719e+00
1.466392e+00
3.477265e+00
2.670932e+00
3.029635e+00
-1.979452e+00
9.590211e-01
-1.439870e+00
-3.235575e+00
-5.221769e-02
2.119687e+00
5.317853e+00
3.083170e+00
1.045011e+00
1.763854e+00
-1.615699e+00
-3.089542e+00
-1.374631e+00
-1.902694e+00
2.551354e+00
-6.649179e-02
-2.920486e+00
-1.702405e+00
-3.339257e+00
-2.039230e+00
2.188421e+00
3.248395e+00
-5.370403e-01
3.723850e-01
1.627788e+00
4.264188e-01
-1.261283e+00
1.793618e+00
-2.654382e+00
5.908360e+00
5.398666e-01
2.001236e+00
-8.246044e-01
-2.382972e+00
1.085959e+00
-1.487248e+00
-8.884612e-01
-4.485330e-01
1.411379e+00
3.910662e+00
1.689818e+00
1.284085e+00
1.890152e+00
1.031351e+00
-2.733074e+00
-2.107389e-01
-2.102868e+00
2.814342e+00
5.375552e+00
4.094625e+00
1.885383e+00
-2.564320e+00
-2.425429e+00
-3.385040e-01
-4.264207e-01
2.013870e+00
2.945331e+00
-6.144539e-01
-9.345918e-01
8.535923e-01
-4.309157e-01
-4.261166e+00
-1.623051e+00
-6.035908e-01
-1.242362e+00
9.738634e-01
1.053904e+00
2.899875e+00
1.095879e+00
2.047678e+00
-1.344616e+00
1.341915e+00
4.222465e+00
-6.070739e-01
1.303201e+00
1.612675e+00
-3.650190e+00
-6.751565e-01
-2.961000e+00
-1.267028e+00
-8.992952e-01
-2.380639e-01
-2.998679e-02
-1.582824e+00
-1.615711e+00
5.700921e-01
3.321700e+00
-2.383460e+00
8.062684e-01
2.247632e+00
2.150697e+00
2.247014e+00
-3.250850e-01
-4.682426e+00
7.974502e-02
9.813100e-01
-1.282617e+00
-3.839440e-01
-9.262991e-01
-5.266092e-01
-2.649841e+00
1.255076e+00
-3.376633e+00
-1.027799e+00
3.305446e+00
2.181332e+00
9.243831e-01
4.350319e-01
1.314682e+00
1.601353e+00
8.489735e-01
3.003926e+00
-2.017666e+00
1.081564e-01
-3.466518e+00
1.022077e+00
9.282439e-01
-1.123850e+00
-5.021061e+00
-5.534062e+00
2.981735e+00
-2.232821e+00
2.823689e+00
7.780215e-01
6.228360e-01
-1.022551e+00
8.986636e-01
-5.654509e-01
-1.953026e+00
1.899574e-01
1.221532e+00
9.339346e-01
1.477156e+00
4.618320e-01
-6.210343e+00
-3.141324e+00
-1.578320e+00
2.482740e-01
1.388640e+00
1.511256e+00
-4.018343e-01
2.795135e+00
-2.206383e+00
-3.708437e+00
4.179659e-01
2.246007e+00
3.088326e+00
2.695684e+00
3.320125e+00
1.250569e+00
3.174702e+00
2.017000e+00
-7.660002e-01
8.669810e-01
2.057289e+00
3.277909e+00
5.178599e-02
2.403385e+00
1.395513e+00
6.136174e-01
9.910952e-01
-1.115426e+00
1.238998e+00
3.082796e+00
5.254067e-01
-1.224761e+00
2.108640e+00
5.142736e-01
5.834915e-01
-3.041537e-01
-1.530204e+00
1.663502e+00
2.817298e+00
1.271916e+00
-4.701124e-01
-1.015847e+00
-2.026623e+00
-4.413266e+00
-6.173649e-01
1.806524e+00
5.499747e-01
-3.632257e-01
1.913087e+00
2.509126e+00
5.505794e-01
5.554278e-01
4.244337e-01
-4.492882e-01
1.614827e+00
3.821618e+00
1.069951e+00
1.754177e+00
-7.088871e-01
-1.810210e-02
-2.494992e+00
-3.195562e+00
-5.054698e+00
1.715068e+00
9.327123e-01
1.257987e+00
3.627451e-01
-4.676287e+00
-7.442989e-01
3.604254e+00
2.521486e+00
1.108971e+00
7.116287e-01
5.572119e-01
1.056675e+00
1.665184e-01
-2.375707e+00
-1.377085e+00
-5.660322e-01
2.661239e+00
2.622171e+00
8.093112e-01
-3.062262e+00
-8.074831e-01
-8.115103e-02
-1.796680e+00
-3.274160e+00
-1.265758e+00
2.516163e+00
9.838138e-01
1.546007e+00
8.210451e-01
1.265027e+00
1.663327e+00
1.066994e+00
1.921293e+00
1.990154e+00
-1.090795e+00
2.442753e+00
1.753825e+00
-5.237716e-01
-2.043687e+00
-2.485960e+00
-3.829220e+00
7.824353e-02
1.646070e+00
2.279644e+00
-3.420519e-01
-1.552913e+00
2.674845e+00
2.990368e+00
5.101527e+00
-7.269912e-01
-9.166265e-01
1.895759e+00
1.712497e+00
1.413311e+00
-1.672154e+00
-1.348659e+00
-1.314675e+00
-4.104758e+00
-1.366237e+00
4.511944e-01
-9.434713e-01
8.925258e-01
-1.498112e-01
-8.114588e-01
3.397933e-01
4.109499e+00
3.972511e-01
6.736652e+00
5.052474e+00
3.320495e+00
-3.825470e+00
-1.446379e+00
-2.912444e+00
5.669824e-01
-1.418737e+00
7.111618e-02
3.644289e+00
-2.499842e+00
-4.627805e+00
-3.065775e+00
-2.163672e+00
2.203583e-01
-8.119659e-02
-2.718135e-01
1.235189e+00
-1.688650e+00
6.930424e-01
1.714332e+00
-4.722220e-01
2.352455e+00
3.475633e-02
3.390073e+00
-1.127636e+00
1.272463e+00
1.481217e+00
-2.683868e+00
-4.151701e+00
-2.438130e+00
-1.333019e+00
2.529688e+00
-1.760244e+00
2.327532e+00
-7.168305e-01
-2.017979e+00
-1.823167e+00
3.321341e+00
-1.497435e+00
3.688013e+00
1.581748e+00
6.428276e-01
2.699436e+00
7.797937e-01
-3.755908e-01
3.775262e-01
-1.420177e+00
4.234081e+00
6.662888e-01
2.199919e+00
2.238040e+00
-2.407203e+00
1.657225e+00
3.218929e-01
-2.904011e+00
-2.932120e-02
-1.563220e+00
3.411793e+00
1.067964e+00
2.599008e+00
3.167007e-01
2.969699e-01
-1.239487e+00
-7.342884e-01
4.389796e-01
6.107076e+00
2.939689e+00
1.711312e+00
7.577751e-01
3.614720e+00
-6.496971e-01
-4.013886e-02
-1.926958e+00
-1.857348e-02
-1.644376e+00
1.450788e+00
-1.429776e+00
2.141807e+00
1.191726e+00
-5.654153e-01
-3.981348e-01
-1.601374e+00
3.352386e+00
3.286876e+00
7.353309e-01
4.251391e+00
4.998558e-01
2.529152e-01
-6.518237e-01
1.374524e+00
-1.207619e+00
1.239370e-01
-2.102676e+00
-3.253598e+00
-5.012134e+00
1.770028e+00
-4.964556e+00
4.710457e+00
2.428948e+00
-2.819829e+00
1.156118e+00
2.560711e+00
-1.264536e+00
1.274891e+00
-2.353510e+00
3.591583e-01
3.745519e+00
1.699522e+00
3.166530e+00
8.773526e-02
-2.295052e+00
-5.434534e-01
-1.543676e+00
3.112741e+00
-1.956824e+00
6.308549e-01
-2.157488e+00
3.841781e+00
1.411854e+00
2.475146e+00
-9.381763e-01
8.820391e-01
3.302731e+00
7.636520e-01
2.702771e+00
-1.629410e+00
-2.446263e-01
-8.268772e-01
-2.598650e+00
-4.409810e+00
-2.398342e-01
2.964184e-01
1.495946e+00
2.176126e+00
-1.947247e+00
-2.550035e-01
-8.311062e-01
1.444044e+00
1.584037e+00
-9.075537e-01
-2.219497e+00
2.433039e-02
3.265645e+00
5.256411e-01
-6.116390e-01
-1.980063e+00
-1.718284e+00
9.264079e-01
1.984495e+00
1.599377e+00
5.642365e-01
1.797634e+00
-1.648580e+00
-1.680598e+00
-3.369682e+00
-2.589221e-01
-2.951032e-02
-1.088697e+00
2.231635e+00
1.319566e+00
4.321148e+00
7.943675e-01
7.845844e-01
-1.688243e-01
-1.369837e+00
-1.116857e+00
1.875334e+00
3.655302e+00
4.139504e-01
7.244970e-01
-2.544626e+00
-7.231625e-01
-1.227610e+00
-1.565557e+00
1.919906e+00
-2.020485e-01
-6.524854e+00
3.281753e+00
-1.363491e+00
3.330842e-01
-5.911530e-01
1.460412e+00
1.128528e+00
1.447671e+00
6.464598e-02
-2.164006e+00
-1.606080e+00
-3.627108e-01
-1.087619e+00
3.032585e+00
6.468900e+00
-1.195044e+00
-1.856928e+00
-2.897054e+00
-3.288024e+00
-1.633693e+00
-2.100138e-01
3.097573e-01
-1.712826e+00
4.460900e+00
3.254091e+00
-1.181272e+00
-3.621637e-01
-1.288126e+00
-4.003438e-01
-1.117075e+00
-7.325813e-01
1.313884e+00
8.332638e-02
-4.767334e-02
-1.637477e+00
-1.860306e+00
-1.222914e+00
-2.455778e+00
2.453541e+00
1.643134e+00
-4.744814e+00
-7.376214e-01
1.378829e+00
1.512402e+00
-3.284660e+00
3.513917e+00
6.204971e-01
-1.654964e+00
7.144129e-01
-1.166145e-01
3.482552e+00
-4.969882e+00
-2.812785e+00
-4.820808e-01
6.708482e-01
-3.433617e+00
2.987106e+00
-2.578591e+00
-1.962520e+00
-1.472693e+00
5.645399e-01
1.504040e-01
-2.552646e-01
2.414781e+00
3.235579e-01
4.792459e+00
1.471677e+00
-3.142710e+00
-2.012336e+00
-2.557874e+00
-2.727892e+00
1.321572e+00
-1.947396e+00
5.861801e-01
-3.887955e-02
-2.087647e+00
-1.070205e+00
-3.053355e+00
2.285300e+00
-3.680199e+00
7.956512e-01
-4.836942e-02
7.021318e-01
-2.681185e+00
1.881477e+00
1.930920e-01
1.940135e+00
1.426195e+00
-7.759778e-01
-1.187898e+00
1.769267e-01
1.626861e+00
-2.551518e+00
-1.671735e+00
-5.935801e+00
-3.319113e+00
2.468994e-01
1.651740e+00
3.213556e+00
1.198845e+00
6.315276e-01
-2.544359e+00
-4.723626e+00
1.556157e+00
1.393674e+00
2.038534e+00
2.959499e+00
6.945930e-01
3.179739e+00
1.963046e+00
-1.265705e+00
-2.182942e+00
-7.992990e-01
1.175609e+00
2.577766e+00
2.295451e+00
-3.897990e+00
-2.018790e-01
-7.474572e+00
-4.607035e+00
-2.593494e+00
8.840403e-02
7.854894e-01
1.164240e+00
3.411128e+00
1.025555e+00
1.875558e+00
-4.688289e-01
-2.106871e+00
-2.209868e+00
3.097575e+00
1.191331e-01
1.656402e+00
-5.635010e-02
-1.981967e+00
-6.495330e-01
-3.335879e+00
6.930932e-01
2.239209e+00
4.073622e+00
2.117786e+00
2.458754e+00
1.667501e+00
-2.375452e+00
-6.623753e-01
8.194796e-01
-1.585944e+00
9.033324e-01
-1.268483e+00
6.573642e-01
7.977025e-01
8.445399e-02
1.683026e-01
7.056719e-01
-1.246065e+00
1.738457e+00
2.320976e+00
-7.473226e-02
2.336278e-02
1.039271e+00
-1.253268e+00
-2.404571e+00
-1.282204e+00
-6.267739e-01
-7.575518e-01
4.113830e+00
-2.882241e+00
3.560908e-01
5.504975e-02
-1.739917e-01
-8.951967e-01
-3.053968e+00
-6.202028e-01
-1.469047e+00
1.579314e+00
-1.326965e+00
-3.364686e-01
-1.774933e+00
-2.528735e+00
-2.130934e+00
-2.507798e+00
-6.472908e-01
-1.012999e-01
5.591273e-01
1.026705e+00
2.211031e-01
1.463005e+00
2.804034e-01
2.861699e+00
8.917919e-01
6.183424e-01
2.218193e+00
3.030195e-01
-9.052136e-01
-2.466364e+00
-1.656368e+00
-2.458004e+00
-3.666063e-01
8.214860e-01
3.548820e+00
-9.748652e-01
-1.431727e+00
-3.143571e-01
-1.400673e-01
3.370023e-01
1.362691e+00
-2.448006e+00
4.198626e+00
2.170517e+00
-7.952047e-01
-1.997753e+00
-2.331350e+00
-4.056603e+00
-6.590977e-01
2.664726e+00
-2.810598e+00
-3.602593e+00
-8.392623e-01
-4.033204e+00
-1.983888e+00
-2.403389e+00
8.634503e-01
3.838101e-02
1.653186e+00
2.177959e+00
1.600774e+00
1.079675e+00
-9.031997e-01
-5.216971e+00
6.671781e-01
-1.160280e+00
2.014748e+00
-1.964108e+00
2.004725e+00
-2.736966e+00
-2.882199e+00
-8.547137e-01
3.543130e+00
-2.208211e+00
4.011884e+00
1.746848e+00
-1.198088e+00
1.619391e+00
8.457024e-02
-1.371591e+00
-8.930188e-01
-3.402794e+00
1.028701e+00
2.625839e+00
1.711011e+00
-3.222273e-01
1.542363e+00
-1.991403e+00
-2.408431e-02
-3.130535e+00
-5.700634e-01
8.236495e-01
1.681526e+00
-1.208064e-01
-9.328468e-02
1.391057e+00
1.537316e+00
-1.391688e+00
1.129375e+00
4.505322e+00
1.981990e+00
1.350786e+00
3.378087e+00
1.579871e+00
-1.900707e+00
-4.606392e-01
-2.248146e+00
-2.915671e-02
2.383917e+00
-2.371987e+00
1.502821e+00
-2.056285e+00
-3.042879e+00
-2.879478e+00
-4.919618e+00
7.693834e-02
-1.353035e+00
-2.237199e+00
7.695953e-01
-9.768070e-01
-1.037625e+00
-2.638054e-03
5.127423e-01
1.148300e-01
6.852053e-01
4.029463e-01
7.502575e-02
-2.212593e+00
-3.796901e+00
-3.814916e+00
-2.945612e-01
-6.891154e-01
1.818535e+00
2.791687e+00
-1.168345e+00
-2.204327e+00
-4.309061e+00
-1.188196e+00
9.497179e-01
3.314031e+00
1.299639e+00
7.214746e-01
2.011154e+00
-7.091407e-01
2.245164e-01
-8.502121e-01
-3.427978e+00
-1.370920e+00
7.623238e-01
3.127350e+00
1.417112e+00
3.772821e+00
-2.178316e+00
-9.666485e-01
-1.743218e+00
-6.058272e-01
-2.152611e+00
6.940391e-01
7.787588e-01
5.903010e-01
6.256893e-02
-4.043319e-01
-2.988652e-01
2.313758e+00
-5.953885e-01
6.873946e-01
-2.342826e+00
1.060658e+00
1.181779e-01
-2.228444e+00
-8.301729e-01
-2.224394e+00
-1.690424e+00
-2.576152e+00
2.187474e+00
-1.078588e+00
8.033852e-01
3.288304e-01
1.077815e+00
1.046446e+00
-2.729325e+00
3.281043e+00
2.497126e+00
-3.347708e-01
-7.974153e-01
-4.773298e-01
-1.659457e+00
7.324035e-01
7.815088e-01
-3.924087e-01
1.868737e+00
4.707052e-01
2.892311e+00
2.239059e+00
-3.317082e+00
5.514422e-01
-2.151226e-01
-7.049667e-01
2.341915e+00
5.104667e-01
5.163344e-01
2.420717e+00
3.285181e-01
-1.302984e-02
1.707960e+00
-1.459329e+00
4.834182e-01
2.003598e+00
-1.743958e+00
4.099825e-01
-8.796636e-01
-3.732378e-01
-1.123911e+00
-1.352386e+00
-2.302914e+00
2.112190e+00
3.936818e+00
2.105821e+00
2.470110e+00
2.946575e-01
-1.027942e+00
1.101700e-01
-2.921429e+00
4.133517e+00
3.116816e+00
-2.466960e+00
-2.037806e+00
8.091145e-01
-1.503939e+00
-1.625224e+00
-4.554558e+00
-4.490039e-01
3.798974e-01
1.701933e+00
-2.586329e+00
1.949585e+00
-2.710997e+00
-6.448927e-01
2.593769e+00
2.976640e+00
1.923912e+00
3.774902e+00
-7.345376e-01
2.582571e+00
1.870606e+00
-2.746840e+00
-6.730359e-01
5.018647e+00
1.760816e+00
2.767786e+00
1.530650e+00
-2.427873e+00
-4.588888e+00
-1.497207e+00
-3.441020e+00
-3.789930e+00
